# vtk DataFile Version 2.0
 Output from OP2 Volna.
ASCII
DATASET UNSTRUCTURED_GRID

POINTS 496 double
9 -0 0 
7.84 -0 0 
6.76 -0 0 
5.76 -0 0 
4.84 -0 0 
4 -0 0 
3.24 -0 0 
2.56 -0 0 
1.96 -0 0 
1.44 -0 0 
1 -0 0 
0.639353 -0.040706 0 
0.357622 -0.058521 0 
0.155386 -0.054339 0 
0.033399 -0.032499 0 
-0.0077 0 0 
0.033399 0.032499 0 
0.155386 0.054339 0 
0.357622 0.058521 0 
0.639353 0.040706 0 
1 0 0 
1.44 0 0 
1.96 0 0 
2.56 0 0 
3.24 0 0 
4 0 0 
4.84 0 0 
5.76 0 0 
6.76 0 0 
7.84 0 0 
9 0 0 
8.96 -1.2 0 
7.8 -1.12 0 
6.72 -1.04 0 
5.72 -0.96 0 
4.8 -0.88 0 
3.96 -0.8 0 
3.2 -0.72 0 
2.52 -0.64 0 
1.92 -0.56 0 
1.4 -0.48 0 
0.96 -0.4 0 
0.589938 -0.357992 0 
0.299722 -0.29462 0 
0.090623 -0.210717 0 
-0.036083 -0.110333 0 
-0.079467 0 0 
-0.036083 0.110333 0 
0.090623 0.210717 0 
0.299722 0.29462 0 
0.589938 0.357992 0 
0.96 0.4 0 
1.4 0.48 0 
1.92 0.56 0 
2.52 0.64 0 
3.2 0.72 0 
3.96 0.8 0 
4.8 0.88 0 
5.72 0.96 0 
6.72 1.04 0 
7.8 1.12 0 
8.96 1.2 0 
8.84 -2.4 0 
7.68 -2.24 0 
6.6 -2.08 0 
5.6 -1.92 0 
4.68 -1.76 0 
3.84 -1.6 0 
3.08 -1.44 0 
2.4 -1.28 0 
1.8 -1.12 0 
1.28 -0.96 0 
0.84 -0.8 0 
0.461875 -0.675278 0 
0.164402 -0.530718 0 
-0.05056 -0.367094 0 
-0.18129 -0.188166 0 
-0.226623 0 0 
-0.18129 0.188166 0 
-0.05056 0.367094 0 
0.164402 0.530718 0 
0.461875 0.675278 0 
0.84 0.8 0 
1.28 0.96 0 
1.8 1.12 0 
2.4 1.28 0 
3.08 1.44 0 
3.84 1.6 0 
4.68 1.76 0 
5.6 1.92 0 
6.6 2.08 0 
7.68 2.24 0 
8.84 2.4 0 
8.64 -3.6 0 
7.48 -3.36 0 
6.4 -3.12 0 
5.4 -2.88 0 
4.48 -2.64 0 
3.64 -2.4 0 
2.88 -2.16 0 
2.2 -1.92 0 
1.6 -1.68 0 
1.08 -1.44 0 
0.64 -1.2 0 
0.255162 -0.992565 0 
-0.048339 -0.766817 0 
-0.26816 -0.523472 0 
-0.402223 -0.265999 0 
-0.449168 0 0 
-0.402223 0.265999 0 
-0.26816 0.523472 0 
-0.048339 0.766817 0 
0.255162 0.992565 0 
0.64 1.2 0 
1.08 1.44 0 
1.6 1.68 0 
2.2 1.92 0 
2.88 2.16 0 
3.64 2.4 0 
4.48 2.64 0 
5.4 2.88 0 
6.4 3.12 0 
7.48 3.36 0 
8.64 3.6 0 
8.36 -4.8 0 
7.2 -4.48 0 
6.12 -4.16 0 
5.12 -3.84 0 
4.2 -3.52 0 
3.36 -3.2 0 
2.6 -2.88 0 
1.92 -2.56 0 
1.32 -2.24 0 
0.8 -1.92 0 
0.36 -1.6 0 
-0.030199 -1.30985 0 
-0.3385 -1.00292 0 
-0.562179 -0.679849 0 
-0.698881 -0.343833 0 
-0.7471 0 0 
-0.698881 0.343833 0 
-0.562179 0.679849 0 
-0.3385 1.00292 0 
-0.030199 1.30985 0 
0.36 1.6 0 
0.8 1.92 0 
1.32 2.24 0 
1.92 2.56 0 
2.6 2.88 0 
3.36 3.2 0 
4.2 3.52 0 
5.12 3.84 0 
6.12 4.16 0 
7.2 4.48 0 
8.36 4.8 0 
8 -6 0 
6.84 -5.6 0 
5.76 -5.2 0 
4.76 -4.8 0 
3.84 -4.4 0 
3 -4 0 
2.24 -3.6 0 
1.56 -3.2 0 
0.96 -2.8 0 
0.44 -2.4 0 
0 -2 0 
-0.394209 -1.62714 0 
-0.70608 -1.23901 0 
-0.932616 -0.836226 0 
-1.07126 -0.421666 0 
-1.12042 0 0 
-1.07126 0.421666 0 
-0.932616 0.836226 0 
-0.70608 1.23901 0 
-0.394209 1.62714 0 
0 2 0 
0.44 2.4 0 
0.96 2.8 0 
1.56 3.2 0 
2.24 3.6 0 
3 4 0 
3.84 4.4 0 
4.76 4.8 0 
5.76 5.2 0 
6.84 5.6 0 
8 6 0 
7.56 -7.2 0 
6.4 -6.72 0 
5.32 -6.24 0 
4.32 -5.76 0 
3.4 -5.28 0 
2.56 -4.8 0 
1.8 -4.32 0 
1.12 -3.84 0 
0.52 -3.36 0 
0 -2.88 0 
-0.44 -2.4 0 
-0.836868 -1.94442 0 
-1.15108 -1.47511 0 
-1.37947 -0.992604 0 
-1.51937 -0.499499 0 
-1.56913 0 0 
-1.51937 0.499499 0 
-1.37947 0.992604 0 
-1.15108 1.47511 0 
-0.836868 1.94442 0 
-0.44 2.4 0 
0 2.88 0 
0.52 3.36 0 
1.12 3.84 0 
1.8 4.32 0 
2.56 4.8 0 
3.4 5.28 0 
4.32 5.76 0 
5.32 6.24 0 
6.4 6.72 0 
7.56 7.2 0 
7.04 -8.4 0 
5.88 -7.84 0 
4.8 -7.28 0 
3.8 -6.72 0 
2.88 -6.16 0 
2.04 -5.6 0 
1.28 -5.04 0 
0.6 -4.48 0 
0 -3.92 0 
-0.52 -3.36 0 
-0.96 -2.8 0 
-1.35818 -2.26171 0 
-1.6735 -1.71121 0 
-1.90275 -1.14898 0 
-2.04321 -0.577333 0 
-2.09323 0 0 
-2.04321 0.577333 0 
-1.90275 1.14898 0 
-1.6735 1.71121 0 
-1.35818 2.26171 0 
-0.96 2.8 0 
-0.52 3.36 0 
0 3.92 0 
0.6 4.48 0 
1.28 5.04 0 
2.04 5.6 0 
2.88 6.16 0 
3.8 6.72 0 
4.8 7.28 0 
5.88 7.84 0 
7.04 8.4 0 
6.44 -9.6 0 
5.28 -8.96 0 
4.2 -8.32 0 
3.2 -7.68 0 
2.28 -7.04 0 
1.44 -6.4 0 
0.68 -5.76 0 
0 -5.12 0 
-0.6 -4.48 0 
-1.12 -3.84 0 
-1.56 -3.2 0 
-1.95813 -2.579 0 
-2.27334 -1.94731 0 
-2.50244 -1.30536 0 
-2.64277 -0.655166 0 
-2.69272 0 0 
-2.64277 0.655166 0 
-2.50244 1.30536 0 
-2.27334 1.94731 0 
-1.95813 2.579 0 
-1.56 3.2 0 
-1.12 3.84 0 
-0.6 4.48 0 
-0 5.12 0 
0.68 5.76 0 
1.44 6.4 0 
2.28 7.04 0 
3.2 7.68 0 
4.2 8.32 0 
5.28 8.96 0 
6.44 9.6 0 
5.76 -10.8 0 
4.6 -10.08 0 
3.52 -9.36 0 
2.52 -8.64 0 
1.6 -7.92 0 
0.76 -7.2 0 
0 -6.48 0 
-0.68 -5.76 0 
-1.28 -5.04 0 
-1.8 -4.32 0 
-2.24 -3.6 0 
-2.63674 -2.89628 0 
-2.95061 -2.18341 0 
-3.17855 -1.46174 0 
-3.31805 -0.733 0 
-3.36759 0 0 
-3.31805 0.733 0 
-3.17855 1.46174 0 
-2.95061 2.18341 0 
-2.63674 2.89628 0 
-2.24 3.6 0 
-1.8 4.32 0 
-1.28 5.04 0 
-0.68 5.76 0 
-0 6.48 0 
0.76 7.2 0 
1.6 7.92 0 
2.52 8.64 0 
3.52 9.36 0 
4.6 10.08 0 
5.76 10.8 0 
5 -12 0 
3.84 -11.2 0 
2.76 -10.4 0 
1.76 -9.6 0 
0.84 -8.8 0 
0 -8 0 
-0.76 -7.2 0 
-1.44 -6.4 0 
-2.04 -5.6 0 
-2.56 -4.8 0 
-3 -4 0 
-3.39399 -3.21357 0 
-3.70529 -2.41951 0 
-3.93108 -1.61811 0 
-4.06906 -0.810833 0 
-4.11785 0 0 
-4.06906 0.810833 0 
-3.93108 1.61811 0 
-3.70529 2.41951 0 
-3.39399 3.21357 0 
-3 4 0 
-2.56 4.8 0 
-2.04 5.6 0 
-1.44 6.4 0 
-0.76 7.2 0 
0 8 0 
0.84 8.8 0 
1.76 9.6 0 
2.76 10.4 0 
3.84 11.2 0 
5 12 0 
4.16 -13.2 0 
3 -12.32 0 
1.92 -11.44 0 
0.92 -10.56 0 
0 -9.68 0 
-0.84 -8.8 0 
-1.6 -7.92 0 
-2.28 -7.04 0 
-2.88 -6.16 0 
-3.4 -5.28 0 
-3.84 -4.4 0 
-4.2299 -3.53085 0 
-4.53739 -2.65561 0 
-4.76003 -1.77449 0 
-4.8958 -0.888666 0 
-4.94351 0 0 
-4.8958 0.888666 0 
-4.76003 1.77449 0 
-4.53739 2.65561 0 
-4.2299 3.53085 0 
-3.84 4.4 0 
-3.4 5.28 0 
-2.88 6.16 0 
-2.28 7.04 0 
-1.6 7.92 0 
-0.84 8.8 0 
0 9.68 0 
0.92 10.56 0 
1.92 11.44 0 
3 12.32 0 
4.16 13.2 0 
3.24 -14.4 0 
2.08 -13.44 0 
1 -12.48 0 
0 -11.52 0 
-0.92 -10.56 0 
-1.76 -9.6 0 
-2.52 -8.64 0 
-3.2 -7.68 0 
-3.8 -6.72 0 
-4.32 -5.76 0 
-4.76 -4.8 0 
-5.14445 -3.84814 0 
-5.44691 -2.8917 0 
-5.66539 -1.93087 0 
-5.79826 -0.9665 0 
-5.84455 0 0 
-5.79826 0.9665 0 
-5.66539 1.93087 0 
-5.44691 2.8917 0 
-5.14445 3.84814 0 
-4.76 4.8 0 
-4.32 5.76 0 
-3.8 6.72 0 
-3.2 7.68 0 
-2.52 8.64 0 
-1.76 9.6 0 
-0.92 10.56 0 
0 11.52 0 
1 12.48 0 
2.08 13.44 0 
3.24 14.4 0 
2.24 -15.6 0 
1.08 -14.56 0 
0 -13.52 0 
-1 -12.48 0 
-1.92 -11.44 0 
-2.76 -10.4 0 
-3.52 -9.36 0 
-4.2 -8.32 0 
-4.8 -7.28 0 
-5.32 -6.24 0 
-5.76 -5.2 0 
-6.13765 -4.16543 0 
-6.43385 -3.1278 0 
-6.64718 -2.08724 0 
-6.77645 -1.04433 0 
-6.82098 0 0 
-6.77645 1.04433 0 
-6.64718 2.08724 0 
-6.43385 3.1278 0 
-6.13765 4.16543 0 
-5.76 5.2 0 
-5.32 6.24 0 
-4.8 7.28 0 
-4.2 8.32 0 
-3.52 9.36 0 
-2.76 10.4 0 
-1.92 11.44 0 
-1 12.48 0 
-0 13.52 0 
1.08 14.56 0 
2.24 15.6 0 
1.16 -16.8 0 
0 -15.68 0 
-1.08 -14.56 0 
-2.08 -13.44 0 
-3 -12.32 0 
-3.84 -11.2 0 
-4.6 -10.08 0 
-5.28 -8.96 0 
-5.88 -7.84 0 
-6.4 -6.72 0 
-6.84 -5.6 0 
-7.2095 -4.48271 0 
-7.49822 -3.3639 0 
-7.70538 -2.24362 0 
-7.83036 -1.12217 0 
-7.87279 0 0 
-7.83036 1.12217 0 
-7.70538 2.24362 0 
-7.49822 3.3639 0 
-7.2095 4.48271 0 
-6.84 5.6 0 
-6.4 6.72 0 
-5.88 7.84 0 
-5.28 8.96 0 
-4.6 10.08 0 
-3.84 11.2 0 
-3 12.32 0 
-2.08 13.44 0 
-1.08 14.56 0 
0 15.68 0 
1.16 16.8 0 
0 -18 0 
-1.16 -16.8 0 
-2.24 -15.6 0 
-3.24 -14.4 0 
-4.16 -13.2 0 
-5 -12 0 
-5.76 -10.8 0 
-6.44 -9.6 0 
-7.04 -8.4 0 
-7.56 -7.2 0 
-8 -6 0 
-8.36 -4.8 0 
-8.64 -3.6 0 
-8.84 -2.4 0 
-8.96 -1.2 0 
-9 0 0 
-8.96 1.2 0 
-8.84 2.4 0 
-8.64 3.6 0 
-8.36 4.8 0 
-8 6 0 
-7.56 7.2 0 
-7.04 8.4 0 
-6.44 9.6 0 
-5.76 10.8 0 
-5 12 0 
-4.16 13.2 0 
-3.24 14.4 0 
-2.24 15.6 0 
-1.16 16.8 0 
0 18 0 

CELLS 450 2250
4 0 1 32 31
4 1 2 33 32
4 2 3 34 33
4 3 4 35 34
4 4 5 36 35
4 5 6 37 36
4 6 7 38 37
4 7 8 39 38
4 8 9 40 39
4 9 10 41 40
4 10 11 42 41
4 11 12 43 42
4 12 13 44 43
4 13 14 45 44
4 14 15 46 45
4 15 16 47 46
4 16 17 48 47
4 17 18 49 48
4 18 19 50 49
4 19 20 51 50
4 20 21 52 51
4 21 22 53 52
4 22 23 54 53
4 23 24 55 54
4 24 25 56 55
4 25 26 57 56
4 26 27 58 57
4 27 28 59 58
4 28 29 60 59
4 29 30 61 60
4 31 32 63 62
4 32 33 64 63
4 33 34 65 64
4 34 35 66 65
4 35 36 67 66
4 36 37 68 67
4 37 38 69 68
4 38 39 70 69
4 39 40 71 70
4 40 41 72 71
4 41 42 73 72
4 42 43 74 73
4 43 44 75 74
4 44 45 76 75
4 45 46 77 76
4 46 47 78 77
4 47 48 79 78
4 48 49 80 79
4 49 50 81 80
4 50 51 82 81
4 51 52 83 82
4 52 53 84 83
4 53 54 85 84
4 54 55 86 85
4 55 56 87 86
4 56 57 88 87
4 57 58 89 88
4 58 59 90 89
4 59 60 91 90
4 60 61 92 91
4 62 63 94 93
4 63 64 95 94
4 64 65 96 95
4 65 66 97 96
4 66 67 98 97
4 67 68 99 98
4 68 69 100 99
4 69 70 101 100
4 70 71 102 101
4 71 72 103 102
4 72 73 104 103
4 73 74 105 104
4 74 75 106 105
4 75 76 107 106
4 76 77 108 107
4 77 78 109 108
4 78 79 110 109
4 79 80 111 110
4 80 81 112 111
4 81 82 113 112
4 82 83 114 113
4 83 84 115 114
4 84 85 116 115
4 85 86 117 116
4 86 87 118 117
4 87 88 119 118
4 88 89 120 119
4 89 90 121 120
4 90 91 122 121
4 91 92 123 122
4 93 94 125 124
4 94 95 126 125
4 95 96 127 126
4 96 97 128 127
4 97 98 129 128
4 98 99 130 129
4 99 100 131 130
4 100 101 132 131
4 101 102 133 132
4 102 103 134 133
4 103 104 135 134
4 104 105 136 135
4 105 106 137 136
4 106 107 138 137
4 107 108 139 138
4 108 109 140 139
4 109 110 141 140
4 110 111 142 141
4 111 112 143 142
4 112 113 144 143
4 113 114 145 144
4 114 115 146 145
4 115 116 147 146
4 116 117 148 147
4 117 118 149 148
4 118 119 150 149
4 119 120 151 150
4 120 121 152 151
4 121 122 153 152
4 122 123 154 153
4 124 125 156 155
4 125 126 157 156
4 126 127 158 157
4 127 128 159 158
4 128 129 160 159
4 129 130 161 160
4 130 131 162 161
4 131 132 163 162
4 132 133 164 163
4 133 134 165 164
4 134 135 166 165
4 135 136 167 166
4 136 137 168 167
4 137 138 169 168
4 138 139 170 169
4 139 140 171 170
4 140 141 172 171
4 141 142 173 172
4 142 143 174 173
4 143 144 175 174
4 144 145 176 175
4 145 146 177 176
4 146 147 178 177
4 147 148 179 178
4 148 149 180 179
4 149 150 181 180
4 150 151 182 181
4 151 152 183 182
4 152 153 184 183
4 153 154 185 184
4 155 156 187 186
4 156 157 188 187
4 157 158 189 188
4 158 159 190 189
4 159 160 191 190
4 160 161 192 191
4 161 162 193 192
4 162 163 194 193
4 163 164 195 194
4 164 165 196 195
4 165 166 197 196
4 166 167 198 197
4 167 168 199 198
4 168 169 200 199
4 169 170 201 200
4 170 171 202 201
4 171 172 203 202
4 172 173 204 203
4 173 174 205 204
4 174 175 206 205
4 175 176 207 206
4 176 177 208 207
4 177 178 209 208
4 178 179 210 209
4 179 180 211 210
4 180 181 212 211
4 181 182 213 212
4 182 183 214 213
4 183 184 215 214
4 184 185 216 215
4 186 187 218 217
4 187 188 219 218
4 188 189 220 219
4 189 190 221 220
4 190 191 222 221
4 191 192 223 222
4 192 193 224 223
4 193 194 225 224
4 194 195 226 225
4 195 196 227 226
4 196 197 228 227
4 197 198 229 228
4 198 199 230 229
4 199 200 231 230
4 200 201 232 231
4 201 202 233 232
4 202 203 234 233
4 203 204 235 234
4 204 205 236 235
4 205 206 237 236
4 206 207 238 237
4 207 208 239 238
4 208 209 240 239
4 209 210 241 240
4 210 211 242 241
4 211 212 243 242
4 212 213 244 243
4 213 214 245 244
4 214 215 246 245
4 215 216 247 246
4 217 218 249 248
4 218 219 250 249
4 219 220 251 250
4 220 221 252 251
4 221 222 253 252
4 222 223 254 253
4 223 224 255 254
4 224 225 256 255
4 225 226 257 256
4 226 227 258 257
4 227 228 259 258
4 228 229 260 259
4 229 230 261 260
4 230 231 262 261
4 231 232 263 262
4 232 233 264 263
4 233 234 265 264
4 234 235 266 265
4 235 236 267 266
4 236 237 268 267
4 237 238 269 268
4 238 239 270 269
4 239 240 271 270
4 240 241 272 271
4 241 242 273 272
4 242 243 274 273
4 243 244 275 274
4 244 245 276 275
4 245 246 277 276
4 246 247 278 277
4 248 249 280 279
4 249 250 281 280
4 250 251 282 281
4 251 252 283 282
4 252 253 284 283
4 253 254 285 284
4 254 255 286 285
4 255 256 287 286
4 256 257 288 287
4 257 258 289 288
4 258 259 290 289
4 259 260 291 290
4 260 261 292 291
4 261 262 293 292
4 262 263 294 293
4 263 264 295 294
4 264 265 296 295
4 265 266 297 296
4 266 267 298 297
4 267 268 299 298
4 268 269 300 299
4 269 270 301 300
4 270 271 302 301
4 271 272 303 302
4 272 273 304 303
4 273 274 305 304
4 274 275 306 305
4 275 276 307 306
4 276 277 308 307
4 277 278 309 308
4 279 280 311 310
4 280 281 312 311
4 281 282 313 312
4 282 283 314 313
4 283 284 315 314
4 284 285 316 315
4 285 286 317 316
4 286 287 318 317
4 287 288 319 318
4 288 289 320 319
4 289 290 321 320
4 290 291 322 321
4 291 292 323 322
4 292 293 324 323
4 293 294 325 324
4 294 295 326 325
4 295 296 327 326
4 296 297 328 327
4 297 298 329 328
4 298 299 330 329
4 299 300 331 330
4 300 301 332 331
4 301 302 333 332
4 302 303 334 333
4 303 304 335 334
4 304 305 336 335
4 305 306 337 336
4 306 307 338 337
4 307 308 339 338
4 308 309 340 339
4 310 311 342 341
4 311 312 343 342
4 312 313 344 343
4 313 314 345 344
4 314 315 346 345
4 315 316 347 346
4 316 317 348 347
4 317 318 349 348
4 318 319 350 349
4 319 320 351 350
4 320 321 352 351
4 321 322 353 352
4 322 323 354 353
4 323 324 355 354
4 324 325 356 355
4 325 326 357 356
4 326 327 358 357
4 327 328 359 358
4 328 329 360 359
4 329 330 361 360
4 330 331 362 361
4 331 332 363 362
4 332 333 364 363
4 333 334 365 364
4 334 335 366 365
4 335 336 367 366
4 336 337 368 367
4 337 338 369 368
4 338 339 370 369
4 339 340 371 370
4 341 342 373 372
4 342 343 374 373
4 343 344 375 374
4 344 345 376 375
4 345 346 377 376
4 346 347 378 377
4 347 348 379 378
4 348 349 380 379
4 349 350 381 380
4 350 351 382 381
4 351 352 383 382
4 352 353 384 383
4 353 354 385 384
4 354 355 386 385
4 355 356 387 386
4 356 357 388 387
4 357 358 389 388
4 358 359 390 389
4 359 360 391 390
4 360 361 392 391
4 361 362 393 392
4 362 363 394 393
4 363 364 395 394
4 364 365 396 395
4 365 366 397 396
4 366 367 398 397
4 367 368 399 398
4 368 369 400 399
4 369 370 401 400
4 370 371 402 401
4 372 373 404 403
4 373 374 405 404
4 374 375 406 405
4 375 376 407 406
4 376 377 408 407
4 377 378 409 408
4 378 379 410 409
4 379 380 411 410
4 380 381 412 411
4 381 382 413 412
4 382 383 414 413
4 383 384 415 414
4 384 385 416 415
4 385 386 417 416
4 386 387 418 417
4 387 388 419 418
4 388 389 420 419
4 389 390 421 420
4 390 391 422 421
4 391 392 423 422
4 392 393 424 423
4 393 394 425 424
4 394 395 426 425
4 395 396 427 426
4 396 397 428 427
4 397 398 429 428
4 398 399 430 429
4 399 400 431 430
4 400 401 432 431
4 401 402 433 432
4 403 404 435 434
4 404 405 436 435
4 405 406 437 436
4 406 407 438 437
4 407 408 439 438
4 408 409 440 439
4 409 410 441 440
4 410 411 442 441
4 411 412 443 442
4 412 413 444 443
4 413 414 445 444
4 414 415 446 445
4 415 416 447 446
4 416 417 448 447
4 417 418 449 448
4 418 419 450 449
4 419 420 451 450
4 420 421 452 451
4 421 422 453 452
4 422 423 454 453
4 423 424 455 454
4 424 425 456 455
4 425 426 457 456
4 426 427 458 457
4 427 428 459 458
4 428 429 460 459
4 429 430 461 460
4 430 431 462 461
4 431 432 463 462
4 432 433 464 463
4 434 435 466 465
4 435 436 467 466
4 436 437 468 467
4 437 438 469 468
4 438 439 470 469
4 439 440 471 470
4 440 441 472 471
4 441 442 473 472
4 442 443 474 473
4 443 444 475 474
4 444 445 476 475
4 445 446 477 476
4 446 447 478 477
4 447 448 479 478
4 448 449 480 479
4 449 450 481 480
4 450 451 482 481
4 451 452 483 482
4 452 453 484 483
4 453 454 485 484
4 454 455 486 485
4 455 456 487 486
4 456 457 488 487
4 457 458 489 488
4 458 459 490 489
4 459 460 491 490
4 460 461 492 491
4 461 462 493 492
4 462 463 494 493
4 463 464 495 494

CELL_TYPES 450
9
9
9
9
9
9
9
9
9
9
9
9
9
9
9
9
9
9
9
9
9
9
9
9
9
9
9
9
9
9
9
9
9
9
9
9
9
9
9
9
9
9
9
9
9
9
9
9
9
9
9
9
9
9
9
9
9
9
9
9
9
9
9
9
9
9
9
9
9
9
9
9
9
9
9
9
9
9
9
9
9
9
9
9
9
9
9
9
9
9
9
9
9
9
9
9
9
9
9
9
9
9
9
9
9
9
9
9
9
9
9
9
9
9
9
9
9
9
9
9
9
9
9
9
9
9
9
9
9
9
9
9
9
9
9
9
9
9
9
9
9
9
9
9
9
9
9
9
9
9
9
9
9
9
9
9
9
9
9
9
9
9
9
9
9
9
9
9
9
9
9
9
9
9
9
9
9
9
9
9
9
9
9
9
9
9
9
9
9
9
9
9
9
9
9
9
9
9
9
9
9
9
9
9
9
9
9
9
9
9
9
9
9
9
9
9
9
9
9
9
9
9
9
9
9
9
9
9
9
9
9
9
9
9
9
9
9
9
9
9
9
9
9
9
9
9
9
9
9
9
9
9
9
9
9
9
9
9
9
9
9
9
9
9
9
9
9
9
9
9
9
9
9
9
9
9
9
9
9
9
9
9
9
9
9
9
9
9
9
9
9
9
9
9
9
9
9
9
9
9
9
9
9
9
9
9
9
9
9
9
9
9
9
9
9
9
9
9
9
9
9
9
9
9
9
9
9
9
9
9
9
9
9
9
9
9
9
9
9
9
9
9
9
9
9
9
9
9
9
9
9
9
9
9
9
9
9
9
9
9
9
9
9
9
9
9
9
9
9
9
9
9
9
9
9
9
9
9
9
9
9
9
9
9
9
9
9
9
9
9
9
9
9
9
9
9
9
9
9
9
9
9
9
9
9
9
9
9
9
9
9
9
9
9
9
9
9
9
9
9
9
9
9
9
9
9
9
9
9
9
9
9
9
9
9
9
9
9
9
9
9
9
9
9
9
9
9
9
9
9

CELL_DATA 450
SCALARS q0 double 1
LOOKUP_TABLE default
         1
         1
         1
         1
         1
         1
         1
         1
         1
         1
         1
         1
         1
         1
         1
         1
         1
         1
         1
         1
         1
         1
         1
         1
         1
         1
         1
         1
         1
         1
         1
         1
         1
         1
         1
         1
         1
         1
         1
         1
         1
         1
         1
         1
         1
         1
         1
         1
         1
         1
         1
         1
         1
         1
         1
         1
         1
         1
         1
         1
         1
         1
         1
         1
         1
         1
         1
         1
         1
         1
         1
         1
         1
         1
         1
         1
         1
         1
         1
         1
         1
         1
         1
         1
         1
         1
         1
         1
         1
         1
         1
         1
         1
         1
         1
         1
         1
         1
         1
         1
         1
         1
         1
         1
         1
         1
         1
         1
         1
         1
         1
         1
         1
         1
         1
         1
         1
         1
         1
         1
         1
         1
         1
         1
         1
         1
         1
         1
         1
         1
         1
         1
         1
         1
         1
         1
         1
         1
         1
         1
         1
         1
         1
         1
         1
         1
         1
         1
         1
         1
         1
         1
         1
         1
         1
         1
         1
         1
         1
         1
         1
         1
         1
         1
         1
         1
         1
         1
         1
         1
         1
         1
         1
         1
         1
         1
         1
         1
         1
         1
         1
         1
         1
         1
         1
         1
         1
         1
         1
         1
         1
         1
         1
         1
         1
         1
         1
         1
         1
         1
         1
         1
         1
         1
         1
         1
         1
         1
         1
         1
         1
         1
         1
         1
         1
         1
         1
         1
         1
         1
         1
         1
         1
         1
         1
         1
         1
         1
         1
         1
         1
         1
         1
         1
         1
         1
         1
         1
         1
         1
         1
         1
         1
         1
         1
         1
         1
         1
         1
         1
         1
         1
         1
         1
         1
         1
         1
         1
         1
         1
         1
         1
         1
         1
         1
         1
         1
         1
         1
         1
         1
         1
         1
         1
         1
         1
         1
         1
         1
         1
         1
         1
         1
         1
         1
         1
         1
         1
         1
         1
         1
         1
         1
         1
         1
         1
         1
         1
         1
         1
         1
         1
         1
         1
         1
         1
         1
         1
         1
         1
         1
         1
         1
         1
         1
         1
         1
         1
         1
         1
         1
         1
         1
         1
         1
         1
         1
         1
         1
         1
         1
         1
         1
         1
         1
         1
         1
         1
         1
         1
         1
         1
         1
         1
         1
         1
         1
         1
         1
         1
         1
         1
         1
         1
         1
         1
         1
         1
         1
         1
         1
         1
         1
         1
         1
         1
         1
         1
         1
         1
         1
         1
         1
         1
         1
         1
         1
         1
         1
         1
         1
         1
         1
         1
         1
         1
         1
         1
         1
         1
         1
         1
         1
         1
         1
         1
         1
         1
         1
         1
         1
         1
         1
         1
         1
         1
         1
         1
         1
         1
         1
         1
         1
         1
         1
         1
         1
         1
         1
         1
         1
         1
         1
         1
         1
         1
         1
         1
         1
         1
         1
         1
         1
         1
         1
         1
         1
         1
         1
         1
         1
         1
         1
         1
         1
         1
         1
         1
         1
         1

SCALARS q1 double 1
LOOKUP_TABLE default
0.47328638567047631724
0.47328638567047631724
0.47328638567047631724
0.47328638567047631724
0.47328638567047631724
0.47328638567047631724
0.47328638567047631724
0.47328638567047631724
0.47328638567047631724
0.47328638567047631724
0.47328638567047631724
0.47328638567047631724
0.47328638567047631724
0.47328638567047631724
0.47328638567047631724
0.47328638567047631724
0.47328638567047631724
0.47328638567047631724
0.47328638567047631724
0.47328638567047631724
0.47328638567047631724
0.47328638567047631724
0.47328638567047631724
0.47328638567047631724
0.47328638567047631724
0.47328638567047631724
0.47328638567047631724
0.47328638567047631724
0.47328638567047631724
0.47328638567047631724
0.47328638567047631724
0.47328638567047631724
0.47328638567047631724
0.47328638567047631724
0.47328638567047631724
0.47328638567047631724
0.47328638567047631724
0.47328638567047631724
0.47328638567047631724
0.47328638567047631724
0.47328638567047631724
0.47328638567047631724
0.47328638567047631724
0.47328638567047631724
0.47328638567047631724
0.47328638567047631724
0.47328638567047631724
0.47328638567047631724
0.47328638567047631724
0.47328638567047631724
0.47328638567047631724
0.47328638567047631724
0.47328638567047631724
0.47328638567047631724
0.47328638567047631724
0.47328638567047631724
0.47328638567047631724
0.47328638567047631724
0.47328638567047631724
0.47328638567047631724
0.47328638567047631724
0.47328638567047631724
0.47328638567047631724
0.47328638567047631724
0.47328638567047631724
0.47328638567047631724
0.47328638567047631724
0.47328638567047631724
0.47328638567047631724
0.47328638567047631724
0.47328638567047631724
0.47328638567047631724
0.47328638567047631724
0.47328638567047631724
0.47328638567047631724
0.47328638567047631724
0.47328638567047631724
0.47328638567047631724
0.47328638567047631724
0.47328638567047631724
0.47328638567047631724
0.47328638567047631724
0.47328638567047631724
0.47328638567047631724
0.47328638567047631724
0.47328638567047631724
0.47328638567047631724
0.47328638567047631724
0.47328638567047631724
0.47328638567047631724
0.47328638567047631724
0.47328638567047631724
0.47328638567047631724
0.47328638567047631724
0.47328638567047631724
0.47328638567047631724
0.47328638567047631724
0.47328638567047631724
0.47328638567047631724
0.47328638567047631724
0.47328638567047631724
0.47328638567047631724
0.47328638567047631724
0.47328638567047631724
0.47328638567047631724
0.47328638567047631724
0.47328638567047631724
0.47328638567047631724
0.47328638567047631724
0.47328638567047631724
0.47328638567047631724
0.47328638567047631724
0.47328638567047631724
0.47328638567047631724
0.47328638567047631724
0.47328638567047631724
0.47328638567047631724
0.47328638567047631724
0.47328638567047631724
0.47328638567047631724
0.47328638567047631724
0.47328638567047631724
0.47328638567047631724
0.47328638567047631724
0.47328638567047631724
0.47328638567047631724
0.47328638567047631724
0.47328638567047631724
0.47328638567047631724
0.47328638567047631724
0.47328638567047631724
0.47328638567047631724
0.47328638567047631724
0.47328638567047631724
0.47328638567047631724
0.47328638567047631724
0.47328638567047631724
0.47328638567047631724
0.47328638567047631724
0.47328638567047631724
0.47328638567047631724
0.47328638567047631724
0.47328638567047631724
0.47328638567047631724
0.47328638567047631724
0.47328638567047631724
0.47328638567047631724
0.47328638567047631724
0.47328638567047631724
0.47328638567047631724
0.47328638567047631724
0.47328638567047631724
0.47328638567047631724
0.47328638567047631724
0.47328638567047631724
0.47328638567047631724
0.47328638567047631724
0.47328638567047631724
0.47328638567047631724
0.47328638567047631724
0.47328638567047631724
0.47328638567047631724
0.47328638567047631724
0.47328638567047631724
0.47328638567047631724
0.47328638567047631724
0.47328638567047631724
0.47328638567047631724
0.47328638567047631724
0.47328638567047631724
0.47328638567047631724
0.47328638567047631724
0.47328638567047631724
0.47328638567047631724
0.47328638567047631724
0.47328638567047631724
0.47328638567047631724
0.47328638567047631724
0.47328638567047631724
0.47328638567047631724
0.47328638567047631724
0.47328638567047631724
0.47328638567047631724
0.47328638567047631724
0.47328638567047631724
0.47328638567047631724
0.47328638567047631724
0.47328638567047631724
0.47328638567047631724
0.47328638567047631724
0.47328638567047631724
0.47328638567047631724
0.47328638567047631724
0.47328638567047631724
0.47328638567047631724
0.47328638567047631724
0.47328638567047631724
0.47328638567047631724
0.47328638567047631724
0.47328638567047631724
0.47328638567047631724
0.47328638567047631724
0.47328638567047631724
0.47328638567047631724
0.47328638567047631724
0.47328638567047631724
0.47328638567047631724
0.47328638567047631724
0.47328638567047631724
0.47328638567047631724
0.47328638567047631724
0.47328638567047631724
0.47328638567047631724
0.47328638567047631724
0.47328638567047631724
0.47328638567047631724
0.47328638567047631724
0.47328638567047631724
0.47328638567047631724
0.47328638567047631724
0.47328638567047631724
0.47328638567047631724
0.47328638567047631724
0.47328638567047631724
0.47328638567047631724
0.47328638567047631724
0.47328638567047631724
0.47328638567047631724
0.47328638567047631724
0.47328638567047631724
0.47328638567047631724
0.47328638567047631724
0.47328638567047631724
0.47328638567047631724
0.47328638567047631724
0.47328638567047631724
0.47328638567047631724
0.47328638567047631724
0.47328638567047631724
0.47328638567047631724
0.47328638567047631724
0.47328638567047631724
0.47328638567047631724
0.47328638567047631724
0.47328638567047631724
0.47328638567047631724
0.47328638567047631724
0.47328638567047631724
0.47328638567047631724
0.47328638567047631724
0.47328638567047631724
0.47328638567047631724
0.47328638567047631724
0.47328638567047631724
0.47328638567047631724
0.47328638567047631724
0.47328638567047631724
0.47328638567047631724
0.47328638567047631724
0.47328638567047631724
0.47328638567047631724
0.47328638567047631724
0.47328638567047631724
0.47328638567047631724
0.47328638567047631724
0.47328638567047631724
0.47328638567047631724
0.47328638567047631724
0.47328638567047631724
0.47328638567047631724
0.47328638567047631724
0.47328638567047631724
0.47328638567047631724
0.47328638567047631724
0.47328638567047631724
0.47328638567047631724
0.47328638567047631724
0.47328638567047631724
0.47328638567047631724
0.47328638567047631724
0.47328638567047631724
0.47328638567047631724
0.47328638567047631724
0.47328638567047631724
0.47328638567047631724
0.47328638567047631724
0.47328638567047631724
0.47328638567047631724
0.47328638567047631724
0.47328638567047631724
0.47328638567047631724
0.47328638567047631724
0.47328638567047631724
0.47328638567047631724
0.47328638567047631724
0.47328638567047631724
0.47328638567047631724
0.47328638567047631724
0.47328638567047631724
0.47328638567047631724
0.47328638567047631724
0.47328638567047631724
0.47328638567047631724
0.47328638567047631724
0.47328638567047631724
0.47328638567047631724
0.47328638567047631724
0.47328638567047631724
0.47328638567047631724
0.47328638567047631724
0.47328638567047631724
0.47328638567047631724
0.47328638567047631724
0.47328638567047631724
0.47328638567047631724
0.47328638567047631724
0.47328638567047631724
0.47328638567047631724
0.47328638567047631724
0.47328638567047631724
0.47328638567047631724
0.47328638567047631724
0.47328638567047631724
0.47328638567047631724
0.47328638567047631724
0.47328638567047631724
0.47328638567047631724
0.47328638567047631724
0.47328638567047631724
0.47328638567047631724
0.47328638567047631724
0.47328638567047631724
0.47328638567047631724
0.47328638567047631724
0.47328638567047631724
0.47328638567047631724
0.47328638567047631724
0.47328638567047631724
0.47328638567047631724
0.47328638567047631724
0.47328638567047631724
0.47328638567047631724
0.47328638567047631724
0.47328638567047631724
0.47328638567047631724
0.47328638567047631724
0.47328638567047631724
0.47328638567047631724
0.47328638567047631724
0.47328638567047631724
0.47328638567047631724
0.47328638567047631724
0.47328638567047631724
0.47328638567047631724
0.47328638567047631724
0.47328638567047631724
0.47328638567047631724
0.47328638567047631724
0.47328638567047631724
0.47328638567047631724
0.47328638567047631724
0.47328638567047631724
0.47328638567047631724
0.47328638567047631724
0.47328638567047631724
0.47328638567047631724
0.47328638567047631724
0.47328638567047631724
0.47328638567047631724
0.47328638567047631724
0.47328638567047631724
0.47328638567047631724
0.47328638567047631724
0.47328638567047631724
0.47328638567047631724
0.47328638567047631724
0.47328638567047631724
0.47328638567047631724
0.47328638567047631724
0.47328638567047631724
0.47328638567047631724
0.47328638567047631724
0.47328638567047631724
0.47328638567047631724
0.47328638567047631724