# vtk DataFile Version 2.0
mesh01, Created by zzg
ASCII
DATASET UNSTRUCTURED_GRID
POINTS 16 double
0 1 0
0 4 0
1 7 0
2 9 0
2 0 0
2 3 0
3 5 0
4 8 0
5 1 0
5 4 0
6 7 0
7 9 0
8 2 0
8 5 0
9 8 0
10 10 0

CELLS 9 45
4 0 1 5 4 
4 1 2 6 5 
4 2 3 7 6 
4 4 5 9 8
4 5 6 10 9
4 6 7 11 10 
4 8 9 13 12
4 9 10 14 13
4 10 11 15 14 

CELL_TYPES 9
9
9
9
9
9
9
9
9
9

CELL_DATA 9
SCALARS CellEntityIds double 1
LOOKUP_TABLE default
0.128
0.345
0.224
0.118
0.246
0.324
0.112
0.928
0.237 

POINT_DATA 16
SCALARS CellEntityIds double 1
LOOKUP_TABLE default
5.3
6.8
7.8
5.4
2.6
3.6
7.5
6.2
1.8
3.9
2.5
6.6
1.3
2.8
3.9
8.8  
